     140
Step 1
  C      -2.70559        1.72560       -0.36526
  C      -4.04604        1.25683       -0.42945
  C      -4.02309       -0.18819       -0.51307
  C      -2.73148        3.17024       -0.32375
  N      -2.62517       -0.50606       -0.50711
  N      -4.12207        3.48935       -0.38591
  O      -4.89830       -1.03916       -0.56161
  O      -1.85925        4.02856       -0.23756
  C      -0.40115        0.68013       -0.39544
  C       0.34638        1.84443       -0.29977
  S       0.66313       -0.71208       -0.47755
  C       1.73646        1.62264       -0.30970
  H      -0.11878        2.82309       -0.23619
  C       2.08562        0.28915       -0.40956
  H       2.46558        2.42309       -0.26493
  C      -6.34713        2.35868       -0.55488
  C      -7.19470        3.37632       -0.96571
  S      -7.27052        0.92715       -0.15704
  C      -8.55560        3.01250       -0.96404
  H      -6.85035        4.34355       -1.30280
  C      -8.77026        1.71157       -0.54806
  H      -9.35164        3.67219       -1.28884
  C       3.40554       -0.30200       -0.45393
  C       3.77554       -1.56811       -0.85693
  S       4.80921        0.61207        0.04349
  C       5.16653       -1.80788       -0.76183
  H       3.06748       -2.30365       -1.22078
  C       5.87955       -0.72675       -0.28830
  H       5.62943       -2.75336       -1.01917
  C      -1.83980        0.63763       -0.41755
  C      -4.90886        2.34105       -0.45668
  C      -2.20669       -1.89277       -0.54882
  H      -1.60639       -2.10233       -1.43877
  H      -1.64936       -2.17008        0.35065
  H      -3.12224       -2.48491       -0.59354
  C      -4.55053        4.86470       -0.22635
  H      -4.85468        5.30775       -1.18023
  H      -5.37245        4.93032        0.49035
  H      -3.68989        5.42052        0.14807
  C       7.30536       -0.60457       -0.06501
  C       7.98050        0.26930        0.76045
  S       8.43093       -1.64147       -0.90647
  C       9.38477        0.09623        0.73887
  H       7.47804        0.99380        1.39070
  C       9.80056       -0.91296       -0.10362
  H      10.06859        0.67394        1.34988
  C     -10.02502        0.99880       -0.42832
  S     -11.53204        1.86523       -0.25738
  C     -10.24763       -0.36179       -0.41944
  C     -12.45415        0.38254       -0.21936
  C     -11.61486       -0.70816       -0.30198
  H      -9.45274       -1.09035       -0.52951
  C     -13.89788        0.41474       -0.10632
  H     -11.97473       -1.73038       -0.31267
  S     -14.77560       -0.96354        0.50994
  C     -14.76782        1.43535       -0.42646
  C     -16.31062       -0.14960        0.32555
  C     -16.12518        1.11887       -0.18189
  H     -14.44039        2.38176       -0.84069
  C     -17.54914       -0.80870        0.68470
  H     -16.94233        1.80747       -0.36317
  S     -19.06312       -0.24163        0.05013
  C     -17.73708       -1.89106        1.52383
  C     -19.95827       -1.47152        0.91721
  C     -19.08911       -2.26400        1.65257
  H     -16.92932       -2.38209        2.05380
  C     -21.39635       -1.52123        0.81405
  H     -19.40854       -3.06681        2.30060
  C     -22.26941       -0.55354        0.34102
  N     -22.16855       -2.61394        1.20355
  C     -23.60428       -1.03516        0.44413
  C     -22.30914        0.78006       -0.22165
  C     -23.56574       -2.37317        0.99677
  C     -21.73169       -3.91771        1.65838
  C     -24.47517       -0.07466       -0.04135
  N     -23.70493        1.01670       -0.43491
  O     -21.44691        1.60254       -0.49572
  O     -24.42860       -3.19352        1.26998
  H     -20.93171       -4.30288        1.02122
  H     -21.39839       -3.89363        2.70104
  H     -22.60026       -4.57465        1.59297
  C     -25.91563       -0.12344       -0.15981
  C     -24.14965        2.32076       -0.88325
  C     -26.75723        0.60626       -0.98332
  S     -26.84146       -1.25931        0.79571
  H     -24.42472        2.31412       -1.94306
  H     -24.99610        2.66462       -0.28443
  H     -23.30671        3.00119       -0.75503
  C     -28.12336        0.26501       -0.83437
  H     -26.41028        1.33928       -1.69762
  C     -28.31632       -0.71799        0.10155
  H     -28.92521        0.72392       -1.39942
  H     -29.25142       -1.16400        0.41125
  C      11.14729       -1.37554       -0.36682
  S      12.50895       -0.34822       -0.03952
  C      11.55637       -2.59831       -0.86520
  C      13.63921       -1.57074       -0.57927
  C      12.95559       -2.70681       -0.98624
  H      10.87130       -3.40276       -1.10591
  C      15.05771       -1.31425       -0.52642
  H      13.44062       -3.61135       -1.32320
  C      15.74186       -0.34042        0.18443
  N      16.00971       -2.05980       -1.21856
  C      17.13729       -0.48172       -0.04926
  C      15.54206        0.76570        1.09726
  C      17.33704       -1.58779       -0.96173
  C      15.80276       -3.10888       -2.19563
  C      17.82134        0.49251        0.66237
  N      16.86863        1.23763        1.35459
  O      14.54794        1.27134        1.59762
  O      18.33037       -2.09426       -1.46281
  H      15.55853       -4.06458       -1.72032
  H      15.01372       -2.83196       -2.89903
  H      16.74642       -3.22584       -2.73045
  C      19.23899        0.74923        0.71723
  C      17.07475        2.28683        2.33183
  C      19.92195        1.88419        1.12896
  S      20.37149       -0.47051        0.17409
  H      17.86263        2.00941        3.03630
  H      17.32031        3.24216        1.85661
  H      16.13046        2.40443        2.86536
  C      21.32101        1.77710        1.00888
  H      19.43658        2.78755        1.46855
  C      21.73222        0.55626        0.50678
  H      22.00500        2.58105        1.25421
  C      23.08048        0.09682        0.24435
  C      23.49820       -0.92173       -0.58494
  S      24.45191        0.84904        1.02351
  C      24.90247       -1.10477       -0.59052
  H      22.81495       -1.51541       -1.18131
  C      25.57508       -0.22670        0.23063
  H      25.40388       -1.87111       -1.16990
  C      27.00203       -0.11608        0.47515
  C      27.65238        0.38044        1.58258
  S      28.15893       -0.64390       -0.72353
  C      29.07026        0.32698        1.47398
  H      27.12921        0.74824        2.45776
  C      29.49007       -0.20968        0.28870
  H      29.74748        0.66418        2.24919
  H      30.50303       -0.37399       -0.05058
     140
Step 2
  C      -2.70637        1.69089       -0.22074
  C      -4.04566        1.21829       -0.28207
  C      -4.02131       -0.22961       -0.27647
  C      -2.73107        3.13553       -0.26600
  N      -2.62387       -0.54501       -0.22962
  N      -4.11926        3.44974       -0.38548
  O      -4.89601       -1.08253       -0.27973
  O      -1.86047        3.99656       -0.19700
  C      -0.40251        0.64745       -0.15281
  C       0.34050        1.80704        0.00716
  S       0.66561       -0.72774       -0.36359
  C       1.73147        1.59400       -0.03777
  H      -0.12790        2.77866        0.12558
  C       2.08495        0.27339       -0.24076
  H       2.45770        2.39282        0.05598
  C      -6.34078        2.30994       -0.53623
  C      -7.17635        3.30102       -1.02860
  S      -7.27591        0.90509       -0.07551
  C      -8.53751        2.93828       -1.03824
  H      -6.82195        4.24622       -1.41436
  C      -8.76419        1.66482       -0.55001
  H      -9.32443        3.57718       -1.42150
  C       3.40695       -0.30603       -0.34155
  C       3.77774       -1.54127       -0.83032
  S       4.81273        0.58193        0.19577
  C       5.17095       -1.77903       -0.76839
  H       3.06860       -2.25608       -1.23147
  C       5.88513       -0.72683       -0.23507
  H       5.63458       -2.70347       -1.09225
  C      -1.84049        0.60321       -0.20273
  C      -4.90562        2.29864       -0.40079
  C      -2.20302       -1.92913       -0.14321
  H      -1.65089       -2.23848       -1.03562
  H      -1.59587       -2.10418        0.74928
  H      -3.11691       -2.52173       -0.07610
  C      -4.55053        4.83161       -0.31248
  H      -4.83102        5.22114       -1.29645
  H      -5.38958        4.93627        0.37931
  H      -3.69864        5.40758        0.05154
  C       7.31282       -0.61195       -0.02094
  C       7.99449        0.22221        0.83962
  S       8.43220       -1.60387       -0.92278
  C       9.39879        0.05389        0.79600
  H       7.49714        0.91418        1.50923
  C       9.80824       -0.91213       -0.09855
  H      10.08749        0.60272        1.42779
  C     -10.02236        0.96022       -0.41765
  S     -11.53101        1.83515       -0.31968
  C     -10.24692       -0.39790       -0.34171
  C     -12.45563        0.35689       -0.22069
  C     -11.61652       -0.73702       -0.23119
  H      -9.45102       -1.13141       -0.39902
  C     -13.90101        0.39519       -0.13381
  H     -11.97752       -1.75825       -0.19478
  S     -14.78984       -0.95021        0.53688
  C     -14.76474        1.39847       -0.51891
  C     -16.32105       -0.14627        0.28730
  C     -16.12615        1.09501       -0.28033
  H     -14.42986        2.32282       -0.97490
  C     -17.56538       -0.78596        0.66083
  H     -16.93952        1.77386       -0.50919
  S     -19.07138       -0.24203       -0.01197
  C     -17.76500       -1.83132        1.54314
  C     -19.97872       -1.43206        0.89716
  C     -19.11927       -2.19488        1.67406
  H     -16.96411       -2.30185        2.10138
  C     -21.41599       -1.48148        0.78379
  H     -19.44744       -2.96835        2.35265
  C     -22.28183       -0.53109        0.26469
  N     -22.19522       -2.55432        1.21261
  C     -23.61940       -1.00251        0.37936
  C     -22.31227        0.77803       -0.35326
  C     -23.59002       -2.31677        0.98687
  C     -21.76696       -3.84084        1.72164
  C     -24.48317       -0.05904       -0.15018
  N     -23.70574        1.01147       -0.58469
  O     -21.44473        1.58449       -0.65657
  O     -24.45787       -3.12211        1.28744
  H     -20.96242       -4.25272        1.10738
  H     -21.44333       -3.77763        2.76570
  H     -22.63712       -4.49718        1.67347
  C     -25.92337       -0.10555       -0.27286
  C     -24.14174        2.29715       -1.09084
  C     -26.75780        0.59309       -1.12988
  S     -26.85904       -1.19478        0.72629
  H     -24.41543        2.24538       -2.14976
  H     -24.98674        2.67273       -0.50926
  H     -23.29440        2.97694       -0.99132
  C     -28.12633        0.26556       -0.97227
  H     -26.40400        1.29367       -1.87280
  C     -28.32826       -0.67587        0.00366
  H     -28.92348        0.70425       -1.55958
  H     -29.26695       -1.10343        0.32815
  C      11.15303       -1.35940       -0.39573
  S      12.51614       -0.34489       -0.03627
  C      11.55908       -2.55822       -0.95145
  C      13.64334       -1.54082       -0.63929
  C      12.95723       -2.65896       -1.08973
  H      10.87290       -3.35254       -1.22095
  C      15.06186       -1.28424       -0.58726
  H      13.43968       -3.54725       -1.47051
  C      15.74951       -0.33620        0.15470
  N      16.01039       -2.00172       -1.31315
  C      17.14350       -0.46612       -0.09361
  C      15.55431        0.73595        1.10810
  C      17.33876       -1.53714       -1.04780
  C      15.79921       -3.01568       -2.32571
  C      17.83086        0.48335        0.64771
  N      16.88176        1.20124        1.37282
  O      14.56288        1.22110        1.63357
  O      18.32953       -2.02290       -1.57379
  H      15.55552       -3.98720       -1.88339
  H      15.00859       -2.71361       -3.01692
  H      16.74116       -3.11461       -2.86714
  C      19.24849        0.74047        0.70211
  C      17.09277        2.21532        2.38548
  C      19.93242        1.86214        1.14723
  S      20.37926       -0.45871        0.11160
  H      17.88588        1.91464        3.07435
  H      17.33327        3.18749        1.94300
  H      16.15195        2.31194        2.92925
  C      21.33085        1.76134        1.01494
  H      19.44801        2.75302        1.51957
  C      21.74062        0.55856        0.46990
  H      22.01526        2.55777        1.28258
  C      23.08799        0.11043        0.18431
  C      23.50270       -0.87797       -0.68213
  S      24.46246        0.83732        0.98188
  C      24.90721       -1.05838       -0.70155
  H      22.81707       -1.45163       -1.29515
  C      25.58296       -0.20830        0.14605
  H      25.40659       -1.80330       -1.30989
  C      27.01102       -0.10431        0.38697
  C      27.66644        0.35390        1.50785
  S      28.16236       -0.58890       -0.83499
  C      29.08381        0.30571        1.39051
  H      27.14729        0.69030        2.39793
  C      29.49821       -0.18888        0.18521
  H      29.76454        0.61637        2.17370
  H      30.50959       -0.34019       -0.16466
     140
Step 3
  C      -2.70777        1.67924       -0.13806
  C      -4.04500        1.19998       -0.20069
  C      -4.01553       -0.24786       -0.14290
  C      -2.73336        3.12160       -0.23961
  N      -2.61787       -0.55492       -0.06958
  N      -4.12019        3.42618       -0.40244
  O      -4.88718       -1.10357       -0.12104
  O      -1.86613        3.98501       -0.17667
  C      -0.40260        0.64426       -0.00244
  C       0.33395        1.78957        0.25228
  S       0.66869       -0.69254       -0.37449
  C       1.72628        1.59301        0.16608
  H      -0.13758        2.74437        0.45554
  C       2.08380        0.30248       -0.17432
  H       2.44959        2.38391        0.32594
  C      -6.33602        2.27475       -0.54293
  C      -7.16317        3.23658       -1.10251
  S      -7.27810        0.89644       -0.02133
  C      -8.52398        2.87228       -1.11494
  H      -6.80206        4.15940       -1.53378
  C      -8.75836        1.62709       -0.56159
  H      -9.30474        3.48808       -1.54567
  C       3.40763       -0.25543       -0.35169
  C       3.78045       -1.40938       -1.00792
  S       4.81079        0.54922        0.30908
  C       5.17403       -1.65217       -0.97687
  H       3.07272       -2.05996       -1.50854
  C       5.88574       -0.68450       -0.29977
  H       5.63967       -2.52124       -1.42666
  C      -1.84020        0.59737       -0.07952
  C      -4.90335        2.27252       -0.38203
  C      -2.18654       -1.92863        0.09720
  H      -1.65306       -2.29453       -0.78532
  H      -1.55490       -2.03797        0.98291
  H      -3.09368       -2.52152        0.22483
  C      -4.55807        4.80792       -0.38722
  H      -4.81947        5.16110       -1.38996
  H      -5.41208        4.93325        0.28248
  H      -3.71635        5.40055       -0.02617
  C       7.31327       -0.60015       -0.06965
  C       7.99360        0.09887        0.90472
  S       8.43398       -1.44807       -1.10650
  C       9.39812       -0.06084        0.83823
  H       7.49513        0.68454        1.66831
  C       9.80882       -0.88498       -0.18799
  H      10.08600        0.38933        1.54449
  C     -10.01830        0.92931       -0.41045
  S     -11.52797        1.80718       -0.37292
  C     -10.24356       -0.42350       -0.27002
  C     -12.45347        0.33510       -0.21127
  C     -11.61431       -0.75756       -0.15832
  H      -9.44692       -1.15835       -0.28207
  C     -13.89973        0.37673       -0.14124
  H     -11.97578       -1.77591       -0.07554
  S     -14.79446       -0.93194        0.59138
  C     -14.76004        1.35750       -0.58710
  C     -16.32343       -0.14365        0.28516
  C     -16.12358        1.06597       -0.34559
  H     -14.42114        2.25669       -1.08819
  C     -17.57099       -0.76359        0.68061
  H     -16.93497        1.73114       -0.61760
  S     -19.07117       -0.25668       -0.03297
  C     -17.77829       -1.76136        1.61479
  C     -19.98597       -1.39791        0.92911
  C     -19.13364       -2.11858        1.75246
  H     -16.98231       -2.20117        2.20422
  C     -21.42229       -1.45396        0.80690
  H     -19.46854       -2.85516        2.46794
  C     -22.28533       -0.52677        0.24367
  N     -22.20288       -2.50995        1.27317
  C     -23.62314       -0.99515        0.36816
  C     -22.31301        0.75750       -0.42460
  C     -23.59631       -2.28410        1.02801
  C     -21.77539       -3.77509        1.83397
  C     -24.48437       -0.07379       -0.20272
  N     -23.70529        0.98013       -0.67345
  O     -21.44430        1.55248       -0.75354
  O     -24.46511       -3.07844        1.35398
  H     -20.96045       -4.20414        1.24580
  H     -21.46601       -3.67267        2.87926
  H     -22.64144       -4.43764        1.79821
  C     -25.92370       -0.12658       -0.33266
  C     -24.13961        2.24489       -1.23108
  C     -26.75288        0.53739       -1.22170
  S     -26.86503       -1.17751        0.70149
  H     -24.40551        2.15259       -2.28924
  H     -24.98945        2.64053       -0.67020
  H     -23.29414        2.92961       -1.15132
  C     -28.12216        0.21455       -1.06083
  H     -26.39438        1.20927       -1.98854
  C     -28.32986       -0.68867       -0.05061
  H     -28.91571        0.62923       -1.67005
  H     -29.27032       -1.10444        0.28388
  C      11.15388       -1.28418       -0.54636
  S      12.51729       -0.33556       -0.03923
  C      11.55956       -2.38794       -1.27302
  C      13.64432       -1.42995       -0.81171
  C      12.95769       -2.46849       -1.42340
  H      10.87300       -3.13280       -1.65802
  C      15.06285       -1.18425       -0.72207
  H      13.43958       -3.29077       -1.93172
  C      15.75023       -0.35204        0.14824
  N      16.01207       -1.79076       -1.54219
  C      17.14430       -0.44508       -0.11520
  C      15.55440        0.57276        1.24491
  C      17.34015       -1.36902       -1.21219
  C      15.80188       -2.65118       -2.68822
  C      17.83145        0.38866        0.75470
  N      16.88166        0.99521        1.57449
  O      14.56243        0.97804        1.83337
  O      18.33145       -1.77505       -1.80122
  H      15.55296       -3.67426       -2.38791
  H      15.01543       -2.25172       -3.33324
  H      16.74577       -2.67657       -3.23463
  C      19.24902        0.63535        0.84510
  C      17.09171        1.85635        2.72012
  C      19.93456        1.67604        1.45462
  S      20.37831       -0.45950        0.07583
  H      17.87972        1.45821        3.36399
  H      17.33878        2.87962        2.41911
  H      16.14855        1.88049        3.26780
  C      21.33254        1.59667        1.30513
  H      19.45180        2.49932        1.96059
  C      21.74073        0.49122        0.58182
  H      22.01765        2.34287        1.69007
  C      23.08694        0.09280        0.22623
  C      23.49721       -0.76122       -0.77483
  S      24.46619        0.70445        1.10792
  C      24.90190       -0.93158       -0.83083
  H      22.80817       -1.24497       -1.45758
  C      25.58252       -0.20735        0.12315
  H      25.39800       -1.58063       -1.54286
  C      27.01240       -0.13185        0.36338
  C      27.67774        0.17606        1.52893
  S      28.15296       -0.44619       -0.92273
  C      29.09400        0.14901        1.39291
  H      27.16671        0.39004        2.46060
  C      29.49777       -0.17992        0.12889
  H      29.78159        0.35562        2.20395
  H      30.50602       -0.27986       -0.24746
     140
Step 4
  C      -2.70642        1.69387        0.11476
  C      -4.04454        1.21383        0.06750
  C      -4.01738       -0.23019        0.20338
  C      -2.72437        3.12842       -0.07531
  N      -2.62097       -0.53318        0.30031
  N      -4.10903        3.42441       -0.27863
  O      -4.89053       -1.08207        0.27011
  O      -1.85533        3.98962       -0.04680
  C      -0.40493        0.66080        0.31839
  C       0.33094        1.78386        0.65179
  S       0.65991       -0.62968       -0.20184
  C       1.72299        1.60296        0.52008
  H      -0.13754        2.71621        0.94171
  C       2.07650        0.35021        0.05786
  H       2.44748        2.37979        0.73422
  C      -6.32466        2.26921       -0.38191
  C      -7.13744        3.18784       -1.02805
  S      -7.27989        0.93398        0.22041
  C      -8.49831        2.82397       -1.04264
  H      -6.76514        4.07555       -1.51947
  C      -8.74690        1.62294       -0.40392
  H      -9.26844        3.40642       -1.53453
  C       3.39846       -0.18349       -0.19612
  C       3.76161       -1.26108       -0.97559
  S       4.81094        0.55081        0.52361
  C       5.15588       -1.50212       -0.99232
  H       3.04648       -1.85672       -1.53109
  C       5.87740       -0.60895       -0.22891
  H       5.61524       -2.31798       -1.53805
  C      -1.84347        0.61681        0.22846
  C      -4.89510        2.27519       -0.19567
  C      -2.18362       -1.89058        0.56058
  H      -1.68667       -2.33052       -0.30949
  H      -1.51363       -1.92573        1.42360
  H      -3.08356       -2.46961        0.77381
  C      -4.54479        4.80506       -0.35104
  H      -4.78549        5.10063       -1.37732
  H      -5.41206        4.96913        0.29277
  H      -3.70933        5.41698       -0.00779
  C       7.30863       -0.54633       -0.01456
  C       8.00524        0.03903        1.02119
  S       8.41161       -1.26857       -1.15969
  C       9.40858       -0.10941        0.91352
  H       7.51956        0.53313        1.85459
  C       9.80198       -0.81081       -0.20640
  H      10.10812        0.25922        1.65480
  C     -10.01078        0.93749       -0.23160
  S     -11.52138        1.81041       -0.31726
  C     -10.23986       -0.39941        0.01513
  C     -12.45083        0.35406       -0.06216
  C     -11.61324       -0.72742        0.11034
  H      -9.44306       -1.13032        0.09052
  C     -13.89872        0.39595       -0.04537
  H     -11.97673       -1.73636        0.26662
  S     -14.81679       -0.84648        0.76899
  C     -14.74410        1.32903       -0.60708
  C     -16.33495       -0.09630        0.33922
  C     -16.11495        1.05331       -0.38929
  H     -14.38893        2.18142       -1.17433
  C     -17.59479       -0.68659        0.74155
  H     -16.91743        1.68736       -0.74813
  S     -19.06509       -0.27157       -0.08470
  C     -17.83639       -1.58773        1.76165
  C     -20.01347       -1.32124        0.94609
  C     -19.19404       -1.94536        1.87479
  H     -17.06431       -1.95615        2.42692
  C     -21.44216       -1.40877        0.76590
  H     -19.55623       -2.61014        2.64532
  C     -22.28820       -0.55107        0.08043
  N     -22.23170       -2.42878        1.29299
  C     -23.62504       -1.02641        0.18714
  C     -22.29900        0.66648       -0.70314
  C     -23.61464       -2.24782        0.96534
  C     -21.81494       -3.62997        1.98684
  C     -24.46930       -0.17406       -0.50415
  N     -23.68078        0.84444       -1.03374
  O     -21.42462        1.44105       -1.06399
  O     -24.48912       -3.02129        1.32492
  H     -20.96384       -4.09305        1.48158
  H     -21.56154       -3.42804        3.03274
  H     -22.66693       -4.31107        1.96832
  C     -25.90026       -0.26153       -0.69341
  C     -24.10181        2.04559       -1.72591
  C     -26.69796        0.31515       -1.66825
  S     -26.87293       -1.24407        0.37893
  H     -24.32244        1.85061       -2.78053
  H     -24.97735        2.48244       -1.24010
  H     -23.26595        2.74485       -1.67684
  C     -28.06843       -0.01768       -1.54230
  H     -26.31556        0.93053       -2.47000
  C     -28.30880       -0.84167       -0.47333
  H     -28.83932        0.33381       -2.21684
  H     -29.25752       -1.24606       -0.14831
  C      11.14026       -1.16489       -0.63120
  S      12.51537       -0.28957       -0.03190
  C      11.53039       -2.17076       -1.49559
  C      13.62539       -1.28107       -0.95299
  C      12.92561       -2.23427       -1.67772
  H      10.83511       -2.86083       -1.95900
  C      15.04633       -1.05300       -0.85607
  H      13.39703       -2.98807       -2.29131
  C      15.75338       -0.35207        0.10852
  N      15.97712       -1.54285       -1.76981
  C      17.14214       -0.41306       -0.19007
  C      15.58211        0.40821        1.32875
  C      17.31318       -1.17565       -1.40872
  C      15.74034       -2.23030       -3.02261
  C      17.84956        0.28459        0.77784
  N      16.91782        0.77314        1.69187
  O      14.60283        0.73059        1.98561
  O      18.29135       -1.49830       -2.06723
  H      15.49918       -3.28696       -2.86714
  H      14.93815       -1.74536       -3.58416
  H      16.67079       -2.17328       -3.58927
  C      19.27048        0.50729        0.87820
  C      17.15263        1.46236        2.94401
  C      19.97551        1.44304        1.62106
  S      20.37714       -0.47009       -0.06330
  H      17.94558        0.97118        3.51328
  H      17.40545        2.51592        2.78648
  H      16.21750        1.41613        3.50390
  C      21.37005        1.37774        1.43644
  H      19.50907        2.18647        2.25072
  C      21.75603        0.38795        0.55159
  H      22.06816        2.05530        1.91381
  C      23.09254        0.03741        0.11731
  C      23.47887       -0.65417       -1.01054
  S      24.49080        0.49141        1.06217
  C      24.88065       -0.82688       -1.11392
  H      22.77476       -1.01922       -1.74941
  C      25.58270       -0.26651       -0.06946
  H      25.35949       -1.36185       -1.92563
  C      27.01661       -0.24361        0.15770
  C      27.70144       -0.13643        1.34739
  S      28.13551       -0.35408       -1.18012
  C      29.11530       -0.15432        1.18677
  H      27.20574       -0.07291        2.30925
  C      29.49770       -0.27621       -0.12013
  H      29.81643       -0.08957        2.00988
  H      30.49945       -0.32289       -0.52326
     140
Step 5
  C      -2.69365        1.58542        0.24444
  C      -4.03615        1.11863        0.17375
  C      -4.02135       -0.33033        0.26562
  C      -2.69455        3.02600        0.09389
  N      -2.62854       -0.64590        0.36229
  N      -4.07622        3.34001       -0.11296
  O      -4.90200       -1.17664        0.30176
  O      -1.81746        3.87476        0.15346
  C      -0.40380        0.52297        0.44680
  C       0.33129        1.57087        0.96524
  S       0.65593       -0.65252       -0.30244
  C       1.72440        1.41586        0.80079
  H      -0.13450        2.43625        1.41838
  C       2.07508        0.26427        0.12458
  H       2.45023        2.14199        1.14725
  C      -6.30141        2.20868       -0.26294
  C      -7.10265        3.15612       -0.88138
  S      -7.27117        0.86129        0.28708
  C      -8.46628        2.80464       -0.91628
  H      -6.71980        4.05787       -1.33789
  C      -8.72852        1.58428       -0.32085
  H      -9.22876        3.41071       -1.39128
  C       3.39690       -0.21784       -0.22022
  C       3.75958       -1.13838       -1.17985
  S       4.80917        0.37317        0.62124
  C       5.15391       -1.37444       -1.23818
  H       3.04439       -1.62360       -1.83393
  C       5.87543       -0.63389       -0.32626
  H       5.61289       -2.07964       -1.92115
  C      -1.84329        0.50009        0.32775
  C      -4.87323        2.19589       -0.06699
  C      -2.19053       -2.00974        0.58530
  H      -1.71194       -2.43252       -0.30347
  H      -1.49947       -2.06026        1.43068
  H      -3.08538       -2.59299        0.80757
  C      -4.49848        4.72606       -0.15085
  H      -4.73524        5.04994       -1.16949
  H      -5.36431        4.88333        0.49669
  H      -3.65670        5.32032        0.20792
  C       7.30641       -0.61098       -0.10175
  C       7.99990       -0.22135        1.02422
  S       8.41295       -1.11234       -1.35630
  C       9.40368       -0.34502        0.89442
  H       7.51167        0.11310        1.93214
  C       9.80061       -0.83160       -0.33300
  H      10.10120       -0.11510        1.69149
  C      -9.99929        0.90490       -0.17749
  S     -11.50192        1.79327       -0.24336
  C     -10.24110       -0.43695        0.02657
  C     -12.44495        0.33801       -0.03762
  C     -11.61772       -0.75567        0.10520
  H      -9.45104       -1.17681        0.08331
  C     -13.89258        0.39231       -0.02496
  H     -11.99090       -1.76563        0.22851
  S     -14.82418       -0.85816        0.76114
  C     -14.72774        1.34421       -0.57006
  C     -16.33413       -0.08560        0.34255
  C     -16.10176        1.07646       -0.36198
  H     -14.36297        2.20462       -1.11883
  C     -17.60026       -0.67229        0.73049
  H     -16.89756        1.72482       -0.70997
  S     -19.06352       -0.23601       -0.09716
  C     -17.85299       -1.58512        1.73733