ITEM: TIMESTEP
0
ITEM: NUMBER OF ATOMS
40800
ITEM: BOX BOUNDS xy xz yz xx yy zz
0.0000   60.8598  -0.0000 
0.0000   93.6844  -10.4700
0.0000   72.3076  -0.0000 
ITEM: ATOMS id type xu yu zu da
0 1 -0.16000 20.19000 17.74000 D
1 1 -1.26000 20.47000 18.52000 D
2 1 -1.00000 20.57000 19.93000 D
3 1 0.33000 20.31000 20.18000 D
4 1 0.82000 20.35000 21.51000 D
5 1 -0.05000 20.66000 22.59000 D
6 1 -1.38000 20.95000 22.33000 D
7 1 -1.86000 20.92000 21.01000 D
8 1 1.87000 20.15000 21.71000 D
9 1 0.37000 20.56000 23.59000 D
10 1 -2.08000 21.10000 23.18000 D
11 1 -2.93000 21.11000 20.88000 D
12 1 1.21000 19.85000 18.77000 D
13 1 -2.20000 20.70000 18.05000 D
14 1 -1.24000 20.31000 15.12000 D
15 1 0.02000 20.04000 16.31000 D
16 1 -0.26000 19.92000 13.73000 D
17 1 1.15000 19.74000 15.64000 D
18 1 1.01000 19.68000 14.21000 D
19 1 2.09000 19.62000 16.12000 D
20 1 1.88000 19.54000 13.61000 D
21 1 -1.81000 20.42000 11.71000 D
22 1 -0.69000 19.88000 12.32000 D
23 1 -0.64000 19.25000 10.08000 D
24 1 -1.89000 20.03000 10.36000 D
25 1 -2.84000 20.33000 9.63000 D
26 1 0.05000 19.25000 11.32000 D
27 1 1.30000 18.47000 11.11000 D
28 1 2.24000 18.16000 11.85000 D
29 1 0.08000 18.53000 9.14000 D
30 1 1.20000 17.97000 9.80000 D
31 1 -2.78000 21.41000 12.24000 D
32 1 -3.04000 20.98000 13.18000 D
33 1 -3.75000 21.43000 11.74000 D
34 1 -2.15000 22.81000 12.50000 D
35 1 -1.16000 22.64000 12.97000 D
36 1 -2.96000 23.72000 13.45000 D
37 1 -2.60000 24.72000 13.48000 D
38 1 -3.97000 23.72000 13.06000 D
39 1 -3.00000 23.22000 14.91000 D
40 1 -3.47000 22.26000 15.01000 D
41 1 -1.93000 23.10000 15.24000 D
42 1 -3.68000 24.16000 15.88000 D
43 1 -4.66000 24.44000 15.46000 D
44 1 -3.14000 25.09000 15.95000 D
45 1 -3.91000 23.52000 17.25000 D
46 1 -2.92000 23.34000 17.63000 D
47 1 -4.45000 24.17000 17.97000 D
48 1 -4.46000 22.58000 17.09000 D
49 1 -1.87000 23.47000 11.16000 D
50 1 -2.82000 23.79000 10.65000 D
51 1 -1.31000 22.80000 10.51000 D
52 1 -0.91000 24.68000 11.29000 D
53 1 -0.09000 24.51000 11.94000 D
54 1 -0.60000 25.01000 10.30000 D
55 1 -1.45000 25.54000 11.74000 D
56 1 2.22000 17.05000 9.29000 D
57 1 2.65000 17.39000 8.38000 D
58 1 3.07000 17.01000 9.96000 D
59 1 1.74000 15.62000 9.24000 D
60 1 0.90000 15.60000 8.57000 D
61 1 2.89000 14.75000 8.60000 D
62 1 2.73000 13.69000 8.76000 D
63 1 3.79000 14.95000 9.18000 D
64 1 3.11000 15.06000 7.08000 D
65 1 3.59000 16.02000 6.92000 D
66 1 2.12000 15.12000 6.61000 D
67 1 3.84000 13.92000 6.37000 D
68 1 4.87000 13.78000 6.73000 D
69 1 3.33000 13.00000 6.69000 D
70 1 3.75000 13.96000 4.84000 D
71 1 4.26000 13.10000 4.38000 D
72 1 2.75000 13.88000 4.49000 D
73 1 4.22000 14.82000 4.37000 D
74 1 1.29000 15.01000 10.56000 D
75 1 0.51000 15.61000 11.01000 D
76 1 2.16000 14.98000 11.22000 D
77 1 0.64000 13.57000 10.55000 D
78 1 1.29000 12.78000 10.16000 D
79 1 0.36000 13.22000 11.56000 D
80 1 -0.25000 13.58000 9.89000 D
81 1 0.65000 17.46000 6.64000 D
82 1 -0.29000 18.41000 7.74000 D
83 1 -0.28000 17.85000 5.27000 D
84 1 -1.32000 18.97000 7.03000 D
85 1 -1.24000 18.71000 5.64000 D
86 1 -2.16000 19.45000 7.47000 D
87 1 -1.97000 19.02000 4.92000 D
88 1 -0.06000 17.25000 4.00000 D
89 1 0.66000 16.12000 3.59000 D
90 1 0.85000 15.99000 2.17000 D
91 1 -0.25000 16.16000 1.27000 D
92 1 -0.11000 16.05000 -0.12000 D
93 1 1.12000 15.66000 -0.62000 D
94 1 2.22000 15.33000 0.18000 D
95 1 2.07000 15.54000 1.55000 D
96 1 -0.93000 16.19000 -0.80000 D
97 1 1.25000 15.58000 -1.72000 D
98 1 3.14000 14.95000 -0.24000 D
99 1 2.97000 15.31000 2.11000 D
100 1 -1.86000 16.30000 1.99000 D
101 1 1.40000 15.80000 4.33000 D
102 2 2.13000 4.42000 7.25000 D
103 2 1.00000 3.78000 7.71000 D
104 2 0.99000 3.52000 9.11000 D
105 2 2.19000 3.97000 9.71000 D
106 2 2.44000 3.78000 11.08000 D
107 2 1.48000 3.20000 11.92000 D
108 2 0.30000 2.73000 11.30000 D
109 2 0.00000 2.95000 9.93000 D
110 2 3.39000 4.17000 11.47000 D
111 2 1.66000 3.09000 12.99000 D
112 2 -0.42000 2.27000 11.94000 D
113 2 -0.90000 2.65000 9.48000 D
114 2 3.28000 4.68000 8.50000 D
115 2 0.14000 3.61000 7.04000 D
116 2 1.44000 4.59000 4.52000 D
117 2 2.43000 4.89000 5.93000 D
118 2 2.50000 5.42000 3.41000 D
119 2 3.50000 5.62000 5.48000 D
120 2 3.52000 5.91000 4.11000 D
121 2 4.33000 5.94000 6.11000 D
122 2 4.34000 6.47000 3.70000 D
123 2 1.19000 4.81000 1.30000 D
124 2 2.17000 5.54000 1.99000 D
125 2 2.32000 6.15000 -0.20000 D
126 2 1.22000 5.18000 -0.02000 D
127 2 0.47000 4.65000 -0.84000 D
128 2 2.86000 6.36000 1.11000 D
129 2 3.95000 7.35000 0.94000 D
130 2 4.69000 7.90000 1.73000 D
131 2 3.02000 6.91000 -1.09000 D
132 2 3.95000 7.69000 -0.42000 D
133 2 0.24000 3.73000 1.73000 D
134 2 -0.23000 4.10000 2.65000 D
135 2 -0.58000 3.71000 1.02000 D
136 2 0.91000 2.37000 1.86000 D
137 2 1.63000 2.33000 2.69000 D
138 2 -0.22000 1.32000 2.26000 D
139 2 0.09000 0.32000 2.00000 D
140 2 -1.08000 1.52000 1.60000 D
141 2 -0.73000 1.40000 3.70000 D
142 2 -0.81000 2.45000 4.05000 D
143 2 0.02000 0.94000 4.35000 D
144 2 -2.11000 0.71000 3.79000 D
145 2 -2.06000 -0.24000 3.25000 D
146 2 -2.85000 1.27000 3.22000 D
147 2 -2.59000 0.53000 5.24000 D
148 2 -3.62000 0.22000 5.26000 D
149 2 -1.98000 -0.26000 5.71000 D
150 2 -2.44000 1.41000 5.88000 D
151 2 1.64000 1.93000 0.57000 D
152 2 2.30000 2.72000 0.28000 D
153 2 0.90000 1.85000 -0.25000 D
154 2 2.44000 0.62000 0.64000 D
155 2 1.84000 -0.27000 0.70000 D
156 2 3.04000 0.49000 -0.25000 D
157 2 3.08000 0.62000 1.52000 D
158 2 5.05000 8.60000 -0.92000 D
159 2 5.36000 8.26000 -1.91000 D
160 2 5.96000 8.45000 -0.33000 D
161 2 4.65000 10.06000 -1.00000 D
162 2 4.07000 10.21000 -1.91000 D
163 2 5.96000 10.89000 -1.17000 D
164 2 6.46000 10.91000 -0.19000 D
165 2 5.67000 11.97000 -1.30000 D
166 2 6.93000 10.46000 -2.28000 D
167 2 6.44000 10.39000 -3.24000 D
168 2 7.36000 9.46000 -2.09000 D
169 2 8.06000 11.54000 -2.26000 D
170 2 7.60000 12.49000 -2.59000 D
171 2 8.44000 11.64000 -1.29000 D
172 2 9.17000 11.18000 -3.18000 D
173 2 9.81000 12.02000 -3.18000 D
174 2 9.66000 10.33000 -2.80000 D
175 2 8.84000 10.92000 -4.19000 D
176 2 3.76000 10.60000 0.17000 D
177 2 4.37000 10.58000 1.08000 D
178 2 2.95000 9.92000 0.36000 D
179 2 3.16000 12.01000 0.01000 D
180 2 2.55000 12.24000 0.89000 D
181 2 3.99000 12.77000 0.04000 D
182 2 2.58000 12.23000 -0.87000 D
183 2 3.42000 8.06000 -3.59000 D
184 2 2.73000 6.89000 -2.54000 D
185 2 2.72000 7.42000 -5.03000 D
186 2 1.94000 6.06000 -3.32000 D
187 2 1.96000 6.33000 -4.71000 D
188 2 1.46000 5.21000 -2.88000 D
189 2 1.43000 5.74000 -5.44000 D
190 2 2.95000 7.97000 -6.32000 D
191 2 3.30000 9.26000 -6.69000 D
192 2 4.08000 9.41000 -7.89000 D
193 2 3.79000 8.64000 -9.07000 D
194 2 4.57000 8.78000 -10.22000 D
195 2 5.63000 9.71000 -10.23000 D
196 2 5.89000 10.48000 -9.11000 D
197 2 5.13000 10.36000 -7.98000 D
198 2 4.35000 8.21000 -11.10000 D
199 2 6.26000 9.78000 -11.09000 D
200 2 6.69000 11.23000 -9.11000 D
201 2 5.37000 10.98000 -7.11000 D
202 2 2.36000 7.66000 -9.08000 D
203 2 3.38000 9.89000 -5.84000 D
204 3 -0.59000 19.30000 32.97000 D
205 3 -1.66000 19.94000 33.49000 D
206 3 -1.57000 20.19000 34.90000 D
207 3 -0.40000 19.68000 35.41000 D
208 3 -0.04000 19.78000 36.76000 D
209 3 -0.98000 20.38000 37.65000 D
210 3 -2.14000 20.97000 37.11000 D
211 3 -2.44000 20.88000 35.76000 D
212 3 0.90000 19.38000 37.13000 D
213 3 -0.77000 20.42000 38.72000 D
214 3 -2.88000 21.37000 37.80000 D
215 3 -3.37000 21.30000 35.41000 D
216 3 0.57000 18.97000 34.20000 D
217 3 -2.49000 20.17000 32.85000 D
218 3 -1.31000 19.34000 30.29000 D
219 3 -0.32000 18.91000 31.62000 D
220 3 -0.36000 18.52000 29.08000 D
221 3 0.72000 18.14000 31.15000 D
222 3 0.68000 17.95000 29.73000 D
223 3 1.49000 17.73000 31.78000 D
224 3 1.47000 17.43000 29.24000 D
225 3 -1.86000 19.03000 27.12000 D
226 3 -0.73000 18.44000 27.69000 D
227 3 -0.69000 17.91000 25.45000 D
228 3 -1.92000 18.72000 25.75000 D
229 3 -2.78000 19.21000 25.01000 D
230 3 -0.02000 17.77000 26.70000 D
231 3 1.21000 16.96000 26.41000 D
232 3 2.06000 16.52000 27.20000 D
233 3 0.03000 17.24000 24.49000 D
234 3 1.18000 16.66000 25.06000 D
235 3 -3.09000 19.65000 27.76000 D
236 3 -3.35000 19.05000 28.62000 D
237 3 -3.94000 19.57000 27.07000 D
238 3 -2.96000 21.18000 28.07000 D
239 3 -2.13000 21.37000 28.74000 D
240 3 -4.18000 21.74000 28.82000 D
241 3 -4.13000 22.81000 28.87000 D
242 3 -5.04000 21.45000 28.27000 D
243 3 -4.34000 21.29000 30.28000 D
244 3 -4.58000 20.25000 30.32000 D
245 3 -3.46000 21.49000 30.87000 D
246 3 -5.47000 22.01000 31.03000 D
247 3 -6.42000 21.91000 30.53000 D
248 3 -5.22000 23.08000 31.06000 D
249 3 -5.63000 21.51000 32.47000 D
250 3 -4.72000 21.68000 33.08000 D
251 3 -6.44000 22.06000 32.93000 D
252 3 -5.82000 20.43000 32.46000 D
253 3 -2.67000 22.01000 26.78000 D
254 3 -3.04000 23.00000 26.94000 D
255 3 -3.28000 21.67000 25.92000 D
256 3 -1.18000 22.22000 26.49000 D
257 3 -1.00000 22.87000 25.64000 D
258 3 -0.67000 22.56000 27.38000 D
259 3 -0.64000 21.26000 26.25000 D
260 3 2.20000 15.72000 24.53000 D
261 3 2.56000 16.19000 23.64000 D
262 3 3.06000 15.63000 25.16000 D
263 3 1.64000 14.31000 24.24000 D
264 3 0.95000 14.38000 23.43000 D
265 3 2.76000 13.31000 23.89000 D
266 3 2.35000 12.29000 23.83000 D
267 3 3.50000 13.29000 24.67000 D
268 3 3.49000 13.46000 22.55000 D
269 3 4.17000 14.27000 22.62000 D
270 3 2.79000 13.69000 21.73000 D
271 3 4.26000 12.15000 22.17000 D
272 3 5.04000 11.94000 22.92000 D
273 3 3.58000 11.33000 22.17000 D
274 3 4.98000 12.22000 20.80000 D
275 3 5.34000 11.22000 20.49000 D
276 3 4.33000 12.66000 20.04000 D
277 3 5.88000 12.79000 20.91000 D
278 3 0.77000 13.78000 25.39000 D
279 3 0.01000 14.56000 25.59000 D
280 3 1.32000 13.69000 26.35000 D
281 3 0.06000 12.48000 25.02000 D
282 3 0.76000 11.64000 25.07000 D
283 3 -0.72000 12.29000 25.80000 D
284 3 -0.45000 12.48000 24.02000 D
285 3 0.67000 16.64000 21.80000 D
286 3 -0.36000 17.21000 23.10000 D
287 3 -0.47000 17.01000 20.52000 D
288 3 -1.53000 17.59000 22.53000 D
289 3 -1.61000 17.49000 21.12000 D
290 3 -2.34000 17.95000 23.13000 D
291 3 -2.47000 17.77000 20.52000 D
292 3 -0.22000 16.83000 19.12000 D
293 3 0.83000 16.29000 18.42000 D
294 3 0.79000 16.30000 16.98000 D
295 3 -0.44000 16.43000 16.27000 D
296 3 -0.52000 16.53000 14.85000 D
297 3 0.65000 16.36000 14.12000 D
298 3 1.88000 16.24000 14.75000 D
299 3 1.95000 16.12000 16.15000 D
300 3 -1.48000 16.57000 14.30000 D
301 3 0.61000 16.39000 13.05000 D
302 3 2.80000 16.20000 14.17000 D
303 3 2.90000 15.93000 16.59000 D
304 3 -1.98000 16.16000 17.05000 D
305 3 1.70000 15.94000 18.95000 D
306 4 -0.06000 4.69000 21.28000 D
307 4 -1.27000 4.18000 21.75000 D
308 4 -1.23000 3.83000 23.15000 D
309 4 0.06000 3.97000 23.64000 D
310 4 0.35000 3.71000 24.97000 D
311 4 -0.63000 3.24000 25.84000 D
312 4 -1.97000 3.09000 25.36000 D
313 4 -2.25000 3.31000 24.01000 D
314 4 1.35000 3.86000 25.38000 D
315 4 -0.38000 3.05000 26.89000 D
316 4 -2.73000 2.81000 26.00000 D
317 4 -3.28000 3.16000 23.60000 D
318 4 1.13000 4.65000 22.51000 D
319 4 -2.18000 4.14000 21.16000 D
320 4 -0.65000 4.90000 18.56000 D
321 4 0.38000 5.14000 19.98000 D
322 4 0.48000 5.71000 17.52000 D
323 4 1.51000 5.80000 19.63000 D
324 4 1.57000 6.09000 18.25000 D
325 4 2.22000 6.13000 20.38000 D
326 4 2.40000 6.53000 17.78000 D
327 4 -0.76000 5.10000 15.36000 D
328 4 0.20000 5.84000 16.11000 D
329 4 0.41000 6.51000 13.90000 D
330 4 -0.71000 5.49000 14.01000 D
331 4 -1.44000 5.02000 13.17000 D
332 4 0.87000 6.70000 15.23000 D
333 4 1.95000 7.76000 15.17000 D
334 4 2.66000 8.19000 16.05000 D
335 4 1.12000 7.35000 13.06000 D
336 4 2.05000 8.13000 13.83000 D
337 4 -1.90000 4.24000 15.78000 D
338 4 -2.36000 4.69000 16.63000 D
339 4 -2.73000 4.22000 15.08000 D
340 4 -1.47000 2.76000 16.08000 D
341 4 -0.72000 2.77000 16.89000 D
342 4 -2.72000 2.00000 16.54000 D
343 4 -2.53000 0.96000 16.40000 D
344 4 -3.52000 2.33000 15.86000 D
345 4 -3.12000 2.11000 17.99000 D
346 4 -3.24000 3.17000 18.24000 D
347 4 -2.33000 1.79000 18.66000 D
348 4 -4.41000 1.37000 18.32000 D
349 4 -4.41000 0.36000 17.91000 D
350 4 -5.25000 1.84000 17.78000 D
351 4 -4.69000 1.24000 19.82000 D
352 4 -5.73000 0.92000 19.94000 D
353 4 -4.04000 0.46000 20.28000 D
354 4 -4.52000 2.15000 20.42000 D
355 4 -0.79000 2.14000 14.86000 D
356 4 -0.05000 2.84000 14.50000 D
357 4 -1.56000 2.03000 14.11000 D
358 4 -0.08000 0.79000 15.11000 D
359 4 -0.76000 -0.04000 15.29000 D
360 4 0.60000 0.51000 14.30000 D
361 4 0.56000 0.85000 15.93000 D
362 4 3.11000 9.08000 13.41000 D
363 4 3.49000 8.75000 12.42000 D
364 4 3.98000 9.04000 14.09000 D
365 4 2.63000 10.57000 13.32000 D
366 4 1.84000 10.56000 12.57000 D
367 4 3.73000 11.54000 12.90000 D
368 4 4.56000 11.41000 13.60000 D
369 4 3.43000 12.58000 12.88000 D
370 4 4.28000 11.25000 11.51000 D
371 4 3.47000 11.28000 10.75000 D
372 4 4.70000 10.22000 11.50000 D
373 4 5.33000 12.29000 11.08000 D
374 4 4.98000 13.32000 11.32000 D
375 4 6.21000 12.10000 11.68000 D
376 4 5.67000 12.23000 9.57000 D
377 4 5.79000 11.21000 9.23000 D
378 4 4.85000 12.66000 8.98000 D
379 4 6.59000 12.80000 9.38000 D
380 4 2.00000 11.08000 14.67000 D
381 4 2.78000 11.09000 15.43000 D
382 4 1.24000 10.38000 15.03000 D
383 4 1.22000 12.40000 14.57000 D
384 4 0.59000 12.62000 15.43000 D
385 4 1.87000 13.23000 14.36000 D
386 4 0.58000 12.33000 13.72000 D
387 4 1.61000 8.66000 10.70000 D
388 4 0.85000 7.43000 11.66000 D
389 4 0.89000 8.06000 9.21000 D
390 4 0.05000 6.67000 10.86000 D
391 4 0.07000 7.01000 9.46000 D
392 4 -0.58000 5.89000 11.25000 D
393 4 -0.55000 6.52000 8.74000 D
394 4 1.29000 8.63000 7.94000 D
395 4 1.79000 9.85000 7.58000 D
396 4 2.65000 9.78000 6.46000 D
397 4 2.17000 9.24000 5.24000 D
398 4 2.93000 9.23000 4.08000 D
399 4 4.21000 9.79000 4.09000 D
400 4 4.70000 10.41000 5.21000 D
401 4 3.93000 10.41000 6.40000 D
402 4 2.49000 8.88000 3.19000 D
403 4 4.79000 9.87000 3.18000 D
404 4 5.72000 10.85000 5.13000 D
405 4 4.30000 10.80000 7.35000 D
406 4 0.58000 8.57000 5.17000 D
407 4 2.02000 10.47000 8.41000 D
408 5 -3.49000 20.16000 46.45000 D
409 5 -4.51000 20.89000 47.05000 D
410 5 -4.38000 20.97000 48.50000 D
411 5 -3.20000 20.40000 48.92000 D
412 5 -2.83000 20.31000 50.23000 D
413 5 -3.64000 20.85000 51.23000 D
414 5 -4.82000 21.50000 50.86000 D
415 5 -5.21000 21.53000 49.49000 D
416 5 -1.92000 19.78000 50.48000 D
417 5 -3.36000 20.87000 52.27000 D
418 5 -5.43000 21.92000 51.65000 D
419 5 -6.12000 22.01000 49.22000 D
420 5 -2.27000 19.75000 47.60000 D
421 5 -5.36000 21.23000 46.47000 D
422 5 -4.60000 20.11000 43.87000 D
423 5 -3.37000 19.79000 45.06000 D
424 5 -3.65000 19.41000 42.56000 D
425 5 -2.33000 19.18000 44.47000 D
426 5 -2.43000 19.03000 43.07000 D
427 5 -1.42000 18.89000 45.01000 D
428 5 -1.58000 18.66000 42.50000 D
429 5 -5.36000 19.85000 40.61000 D
430 5 -4.17000 19.34000 41.19000 D
431 5 -4.22000 18.69000 38.98000 D
432 5 -5.45000 19.49000 39.27000 D
433 5 -6.40000 19.86000 38.55000 D
434 5 -3.53000 18.60000 40.21000 D
435 5 -2.34000 17.76000 39.95000 D
436 5 -1.45000 17.36000 40.70000 D
437 5 -3.48000 18.04000 37.98000 D
438 5 -2.38000 17.41000 38.61000 D
439 5 -6.33000 20.84000 41.18000 D
440 5 -6.51000 20.51000 42.20000 D
441 5 -7.30000 20.88000 40.68000 D
442 5 -5.73000 22.28000 41.30000 D
443 5 -4.77000 22.18000 41.78000 D
444 5 -6.62000 23.21000 42.16000 D
445 5 -6.18000 24.22000 42.17000 D
446 5 -7.60000 23.27000 41.70000 D
447 5 -6.77000 22.87000 43.63000 D
448 5 -7.41000 21.99000 43.68000 D
449 5 -5.81000 22.63000 44.12000 D
450 5 -7.38000 24.03000 44.45000 D
451 5 -8.37000 24.21000 44.04000 D
452 5 -6.85000 25.00000 44.26000 D
453 5 -7.54000 23.65000 45.93000 D
454 5 -6.53000 23.53000 46.40000 D
455 5 -8.03000 24.45000 46.46000 D
456 5 -8.17000 22.77000 46.01000 D
457 5 -5.53000 22.85000 39.87000 D
458 5 -6.49000 22.88000 39.41000 D
459 5 -4.92000 22.23000 39.26000 D
460 5 -4.99000 24.27000 39.83000 D
461 5 -4.83000 24.59000 38.80000 D
462 5 -5.67000 24.98000 40.23000 D
463 5 -3.99000 24.38000 40.30000 D
464 5 -1.31000 16.53000 38.06000 D
465 5 -0.87000 16.99000 37.15000 D
466 5 -0.45000 16.45000 38.68000 D
467 5 -1.79000 15.08000 37.79000 D
468 5 -2.68000 15.10000 37.14000 D
469 5 -0.71000 14.20000 37.07000 D
470 5 -1.01000 13.15000 37.06000 D
471 5 0.21000 14.22000 37.68000 D
472 5 -0.33000 14.66000 35.67000 D
473 5 0.01000 15.72000 35.76000 D
474 5 -1.19000 14.68000 35.00000 D
475 5 0.76000 13.80000 35.07000 D
476 5 1.70000 13.97000 35.58000 D
477 5 0.58000 12.74000 35.20000 D
478 5 0.83000 14.04000 33.55000 D
479 5 1.49000 13.35000 33.04000 D
480 5 -0.16000 13.94000 33.09000 D
481 5 1.13000 15.05000 33.30000 D
482 5 -2.15000 14.37000 39.09000 D
483 5 -2.95000 14.89000 39.60000 D
484 5 -1.33000 14.45000 39.80000 D
485 5 -2.67000 12.91000 38.98000 D
486 5 -1.85000 12.24000 38.80000 D
487 5 -3.16000 12.70000 39.92000 D
488 5 -3.35000 12.84000 38.14000 D
489 5 -2.86000 17.11000 35.45000 D
490 5 -3.83000 18.00000 36.58000 D
491 5 -3.79000 17.57000 34.08000 D
492 5 -4.86000 18.62000 35.89000 D
493 5 -4.85000 18.32000 34.51000 D
494 5 -5.63000 19.15000 36.39000 D
495 5 -5.57000 18.65000 33.83000 D
496 5 -3.53000 17.11000 32.77000 D
497 5 -2.62000 16.16000 32.35000 D
498 5 -2.50000 15.89000 30.93000 D
499 5 -3.63000 16.00000 30.07000 D
500 5 -3.55000 15.83000 28.70000 D
501 5 -2.32000 15.46000 28.11000 D
502 5 -1.22000 15.21000 28.94000 D
503 5 -1.28000 15.44000 30.34000 D
504 5 -4.48000 15.84000 28.11000 D
505 5 -2.30000 15.30000 27.03000 D
506 5 -0.27000 14.88000 28.48000 D
507 5 -0.43000 15.25000 30.94000 D
508 5 -5.22000 16.06000 30.80000 D
509 5 -1.84000 15.89000 33.06000 D
510 6 -2.28000 4.43000 36.29000 D
511 6 -3.43000 3.92000 36.83000 D
512 6 -3.39000 3.73000 38.25000 D
513 6 -2.13000 4.04000 38.73000 D
514 6 -1.76000 3.82000 40.04000 D
515 6 -2.72000 3.38000 40.98000 D
516 6 -4.03000 3.08000 40.54000 D
517 6 -4.37000 3.23000 39.16000 D
518 6 -0.75000 4.09000 40.34000 D
519 6 -2.41000 3.21000 42.04000 D
520 6 -4.78000 2.68000 41.18000 D
521 6 -5.36000 2.94000 38.81000 D
522 6 -1.11000 4.67000 37.53000 D
523 6 -4.29000 3.65000 36.20000 D
524 6 -2.92000 4.55000 33.55000 D
525 6 -1.92000 4.74000 34.92000 D
526 6 -1.80000 5.22000 32.42000 D
527 6 -0.75000 5.36000 34.53000 D
528 6 -0.70000 5.61000 33.13000 D
529 6 0.05000 5.54000 35.19000 D
530 6 0.18000 6.05000 32.67000 D
531 6 -3.11000 4.76000 30.23000 D
532 6 -2.09000 5.37000 30.99000 D
533 6 -1.84000 5.98000 28.76000 D
534 6 -3.04000 5.14000 28.89000 D
535 6 -3.83000 4.72000 28.05000 D
536 6 -1.27000 6.08000 30.11000 D
537 6 -0.08000 6.99000 29.98000 D
538 6 0.68000 7.46000 30.86000 D
539 6 -1.07000 6.82000 27.92000 D
540 6 -0.05000 7.44000 28.65000 D
541 6 -4.18000 3.81000 30.63000 D
542 6 -4.57000 4.19000 31.55000 D
543 6 -5.06000 3.92000 29.98000 D
544 6 -3.81000 2.31000 30.66000 D
545 6 -2.95000 2.17000 31.32000 D
546 6 -5.04000 1.54000 31.19000 D
547 6 -4.92000 0.51000 30.96000 D
548 6 -5.91000 1.83000 30.58000 D
549 6 -5.35000 1.62000 32.74000 D
550 6 -5.32000 2.64000 33.08000 D
551 6 -4.57000 1.09000 33.32000 D
552 6 -6.75000 1.05000 33.03000 D
553 6 -6.92000 0.08000 32.55000 D
554 6 -7.50000 1.73000 32.58000 D
555 6 -7.09000 0.92000 34.49000 D
556 6 -6.76000 0.00000 34.97000 D
557 6 -6.73000 1.79000 35.02000 D
558 6 -8.17000 0.92000 34.65000 D
559 6 -3.40000 1.78000 29.28000 D
560 6 -2.63000 2.40000 28.80000 D
561 6 -4.24000 1.77000 28.56000 D
562 6 -2.75000 0.36000 29.30000 D
563 6 -1.90000 0.34000 29.95000 D
564 6 -3.39000 -0.44000 29.62000 D
565 6 -2.35000 0.16000 28.34000 D
566 6 0.94000 8.46000 28.26000 D
567 6 1.34000 8.18000 27.27000 D
568 6 1.85000 8.42000 28.84000 D
569 6 0.45000 9.88000 28.22000 D
570 6 -0.23000 9.95000 27.34000 D
571 6 1.62000 10.84000 28.09000 D
572 6 2.15000 10.83000 29.04000 D
573 6 1.26000 11.84000 27.90000 D
574 6 2.68000 10.53000 27.03000 D
575 6 2.26000 10.30000 26.03000 D
576 6 3.21000 9.58000 27.32000 D
577 6 3.74000 11.58000 26.98000 D
578 6 3.28000 12.48000 26.72000 D
579 6 4.10000 11.73000 27.98000 D
580 6 4.92000 11.31000 26.03000 D
581 6 5.50000 12.22000 25.89000 D
582 6 5.55000 10.50000 26.39000 D
583 6 4.60000 11.07000 25.02000 D
584 6 -0.47000 10.29000 29.38000 D
585 6 0.06000 10.17000 30.29000 D
586 6 -1.33000 9.61000 29.47000 D
587 6 -1.02000 11.73000 29.27000 D
588 6 -2.00000 11.88000 29.78000 D
589 6 -0.24000 12.41000 29.75000 D
590 6 -1.07000 12.01000 28.23000 D
591 6 -0.55000 8.06000 25.41000 D
592 6 -1.37000 7.01000 26.51000 D
593 6 -1.51000 7.66000 24.03000 D
594 6 -2.35000 6.40000 25.78000 D
595 6 -2.39000 6.72000 24.39000 D
596 6 -2.95000 5.63000 26.17000 D
597 6 -3.10000 6.26000 23.69000 D
598 6 -1.23000 8.24000 22.69000 D
599 6 -0.71000 9.47000 22.37000 D
600 6 -0.08000 9.64000 21.05000 D
601 6 -0.57000 8.98000 19.90000 D
602 6 0.04000 9.13000 18.61000 D
603 6 1.21000 9.92000 18.52000 D
604 6 1.67000 10.66000 19.62000 D
605 6 1.01000 10.52000 20.84000 D
606 6 -0.37000 8.73000 17.70000 D
607 6 1.72000 10.09000 17.55000 D
608 6 2.56000 11.31000 19.57000 D
609 6 1.38000 11.08000 21.66000 D
610 6 -2.08000 8.14000 19.97000 D
611 6 -0.37000 10.13000 23.18000 D
612 7 -5.76000 19.83000 60.43000 D
613 7 -6.88000 20.26000 61.16000 D
614 7 -6.64000 20.24000 62.58000 D
615 7 -5.31000 19.93000 62.88000 D
616 7 -4.76000 19.94000 64.19000 D
617 7 -5.63000 20.19000 65.25000 D
618 7 -6.97000 20.52000 64.99000 D
619 7 -7.49000 20.52000 63.66000 D
620 7 -3.75000 19.65000 64.40000 D
621 7 -5.30000 20.16000 66.29000 D
622 7 -7.70000 20.69000 65.79000 D
623 7 -8.54000 20.70000 63.47000 D
624 7 -4.44000 19.45000 61.47000 D
625 7 -7.84000 20.48000 60.75000 D
626 7 -6.69000 19.95000 57.79000 D
627 7 -5.52000 19.59000 59.04000 D
628 7 -5.66000 19.44000 56.51000 D
629 7 -4.37000 19.15000 58.43000 D
630 7 -4.46000 19.10000 57.01000 D
631 7 -3.51000 18.83000 58.92000 D
632 7 -3.58000 18.83000 56.46000 D
633 7 -7.25000 19.96000 54.59000 D
634 7 -6.13000 19.35000 55.11000 D
635 7 -6.11000 18.77000 52.90000 D
636 7 -7.34000 19.59000 53.23000 D
637 7 -8.17000 20.12000 52.47000 D
638 7 -5.42000 18.64000 54.12000 D
639 7 -4.22000 17.78000 53.89000 D
640 7 -3.40000 17.25000 54.62000 D
641 7 -5.40000 18.09000 51.93000 D
642 7 -4.26000 17.50000 52.51000 D
643 7 -8.32000 20.84000 55.19000 D
644 7 -8.67000 20.43000 56.11000 D
645 7 -9.28000 20.83000 54.60000 D
646 7 -7.90000 22.26000 55.42000 D
647 7 -6.94000 22.22000 55.91000 D
648 7 -8.93000 22.97000 56.35000 D
649 7 -8.75000 24.06000 56.24000 D
650 7 -9.96000 22.84000 56.02000 D
651 7 -8.79000 22.66000 57.85000 D
652 7 -9.24000 21.67000 58.10000 D
653 7 -7.74000 22.64000 58.18000 D
654 7 -9.63000 23.73000 58.69000 D
655 7 -10.70000 23.82000 58.30000 D
656 7 -9.18000 24.70000 58.58000 D
657 7 -9.57000 23.44000 60.18000 D
658 7 -8.57000 23.49000 60.54000 D
659 7 -10.12000 24.20000 60.74000 D
660 7 -9.96000 22.43000 60.39000 D
661 7 -7.69000 22.97000 54.09000 D
662 7 -8.67000 23.23000 53.68000 D
663 7 -7.17000 22.37000 53.33000 D
664 7 -6.83000 24.22000 54.22000 D
665 7 -6.60000 24.68000 53.26000 D
666 7 -7.33000 24.96000 54.83000 D
667 7 -5.85000 24.09000 54.61000 D
668 7 -3.25000 16.54000 51.98000 D
669 7 -2.86000 16.97000 51.08000 D
670 7 -2.40000 16.47000 52.67000 D
671 7 -3.82000 15.10000 51.80000 D
672 7 -4.65000 15.16000 51.09000 D
673 7 -2.73000 14.20000 51.20000 D
674 7 -3.08000 13.15000 51.21000 D
675 7 -1.88000 14.23000 51.83000 D
676 7 -2.30000 14.54000 49.79000 D
677 7 -1.80000 15.53000 49.78000 D
678 7 -3.20000 14.57000 49.18000 D
679 7 -1.19000 13.64000 49.21000 D
680 7 -0.22000 13.99000 49.58000 D
681 7 -1.29000 12.61000 49.53000 D
682 7 -1.12000 13.67000 47.67000 D
683 7 -0.37000 12.94000 47.29000 D
684 7 -2.06000 13.28000 47.25000 D
685 7 -0.97000 14.60000 47.18000 D
686 7 -4.42000 14.52000 53.12000 D
687 7 -5.08000 15.26000 53.62000 D
688 7 -3.64000 14.36000 53.86000 D
689 7 -5.19000 13.23000 52.96000 D
690 7 -4.48000 12.41000 52.71000 D
691 7 -5.71000 13.04000 53.89000 D
692 7 -5.96000 13.32000 52.19000 D
693 7 -4.74000 17.35000 49.37000 D
694 7 -5.81000 18.02000 50.53000 D
695 7 -5.83000 17.61000 48.03000 D
696 7 -6.95000 18.48000 49.88000 D
697 7 -6.96000 18.20000 48.48000 D
698 7 -7.71000 19.06000 50.37000 D
699 7 -7.81000 18.41000 47.82000 D
700 7 -5.51000 17.15000 46.72000 D
701 7 -4.50000 16.31000 46.36000 D
702 7 -4.40000 16.03000 44.94000 D
703 7 -5.55000 15.85000 44.17000 D
704 7 -5.56000 15.73000 42.78000 D
705 7 -4.36000 15.67000 42.11000 D
706 7 -3.14000 15.69000 42.84000 D
707 7 -3.16000 15.94000 44.23000 D
708 7 -6.50000 15.57000 42.27000 D
709 7 -4.41000 15.43000 41.05000 D
710 7 -2.23000 15.50000 42.30000 D
711 7 -2.23000 15.99000 44.77000 D
712 7 -7.00000 15.44000 45.08000 D
713 7 -3.71000 16.17000 47.08000 D
714 8 -4.06000 4.72000 50.71000 D
715 8 -5.21000 4.12000 51.19000 D
716 8 -5.15000 3.79000 52.60000 D
717 8 -3.87000 4.09000 53.13000 D
718 8 -3.53000 3.89000 54.44000 D
719 8 -4.47000 3.33000 55.33000 D
720 8 -5.76000 3.06000 54.86000 D
721 8 -6.11000 3.27000 53.48000 D
722 8 -2.52000 4.10000 54.78000 D
723 8 -4.27000 3.18000 56.37000 D
724 8 -6.54000 2.73000 55.52000 D
725 8 -7.10000 2.96000 53.12000 D
726 8 -2.85000 4.77000 51.95000 D
727 8 -6.09000 4.04000 50.54000 D
728 8 -4.60000 4.84000 48.01000 D
729 8 -3.68000 5.22000 49.42000 D
730 8 -3.67000 5.84000 46.94000 D
731 8 -2.67000 6.02000 49.06000 D
732 8 -2.63000 6.36000 47.69000 D
733 8 -1.92000 6.34000 49.73000 D
734 8 -1.82000 6.97000 47.23000 D
735 8 -5.01000 5.34000 44.85000 D
736 8 -4.00000 5.98000 45.53000 D
737 8 -3.88000 6.56000 43.32000 D
738 8 -5.04000 5.69000 43.50000 D
739 8 -5.82000 5.27000 42.65000 D
740 8 -3.29000 6.69000 44.63000 D
741 8 -2.14000 7.65000 44.44000 D
742 8 -1.25000 8.00000 45.23000 D
743 8 -3.16000 7.34000 42.41000 D
744 8 -2.13000 8.04000 43.10000 D
745 8 -6.05000 4.37000 45.27000 D
746 8 -6.41000 4.65000 46.23000 D
747 8 -6.94000 4.54000 44.65000 D
748 8 -5.66000 2.90000 45.22000 D
749 8 -4.98000 2.71000 46.06000 D
750 8 -6.90000 2.12000 45.63000 D
751 8 -6.82000 1.12000 45.21000 D
752 8 -7.75000 2.56000 45.14000 D
753 8 -7.21000 1.99000 47.11000 D
754 8 -7.32000 2.98000 47.54000 D
755 8 -6.38000 1.49000 47.66000 D
756 8 -8.55000 1.28000 47.29000 D
757 8 -8.59000 0.36000 46.73000 D
758 8 -9.28000 1.92000 46.81000 D
759 8 -8.91000 1.04000 48.77000 D
760 8 -8.86000 2.00000 49.31000 D
761 8 -9.93000 0.63000 48.84000 D
762 8 -8.27000 0.32000 49.26000 D
763 8 -4.98000 2.37000 43.92000 D
764 8 -4.23000 3.06000 43.53000 D
765 8 -5.75000 2.30000 43.12000 D
766 8 -4.20000 1.03000 44.12000 D
767 8 -4.89000 0.31000 44.54000 D
768 8 -3.83000 0.59000 43.20000 D
769 8 -3.38000 1.07000 44.81000 D
770 8 -1.07000 8.97000 42.62000 D
771 8 -0.59000 8.64000 41.71000 D
772 8 -0.23000 9.03000 43.30000 D
773 8 -1.61000 10.43000 42.46000 D
774 8 -2.39000 10.41000 41.69000 D
775 8 -0.52000 11.44000 42.01000 D
776 8 0.14000 11.67000 42.86000 D
777 8 -0.99000 12.36000 41.74000 D
778 8 0.23000 11.11000 40.73000 D
779 8 -0.45000 10.73000 39.92000 D
780 8 0.98000 10.32000 40.90000 D
781 8 1.09000 12.30000 40.21000 D
782 8 0.51000 13.21000 40.19000 D
783 8 1.90000 12.46000 40.88000 D
784 8 1.60000 11.98000 38.81000 D
785 8 2.12000 12.89000 38.45000 D
786 8 2.32000 11.16000 38.79000 D
787 8 0.74000 11.78000 38.18000 D
788 8 -2.37000 10.96000 43.72000 D
789 8 -1.77000 10.78000 44.58000 D
790 8 -3.28000 10.32000 43.88000 D
791 8 -2.90000 12.39000 43.60000 D
792 8 -3.38000 12.69000 44.52000 D
793 8 -2.09000 13.11000 43.54000 D
794 8 -3.63000 12.62000 42.81000 D
795 8 -2.71000 8.49000 39.91000 D
796 8 -3.44000 7.36000 40.96000 D
797 8 -3.49000 7.87000 38.50000 D
798 8 -4.35000 6.65000 40.23000 D
799 8 -4.38000 6.93000 38.88000 D
800 8 -4.94000 5.86000 40.62000 D
801 8 -4.98000 6.44000 38.14000 D
802 8 -3.18000 8.41000 37.17000 D
803 8 -2.66000 9.64000 36.83000 D
804 8 -1.92000 9.65000 35.56000 D
805 8 -2.42000 8.96000 34.45000 D
806 8 -1.64000 8.87000 33.29000 D
807 8 -0.43000 9.55000 33.18000 D
808 8 0.01000 10.35000 34.25000 D
809 8 -0.69000 10.34000 35.42000 D
810 8 -2.04000 8.39000 32.40000 D
811 8 0.13000 9.54000 32.28000 D
812 8 0.95000 10.90000 34.22000 D
813 8 -0.24000 10.85000 36.30000 D
814 8 -4.13000 8.51000 34.45000 D
815 8 -2.40000 10.33000 37.61000 D
816 9 3.67000 18.89000 3.74000 D
817 9 2.61000 19.54000 4.32000 D
818 9 2.77000 19.82000 5.73000 D
819 9 4.01000 19.32000 6.15000 D
820 9 4.47000 19.47000 7.47000 D
821 9 3.64000 20.17000 8.38000 D
822 9 2.41000 20.72000 7.96000 D
823 9 1.98000 20.52000 6.66000 D
824 9 5.41000 19.06000 7.81000 D
825 9 3.93000 20.30000 9.40000 D
826 9 1.69000 21.16000 8.67000 D
827 9 1.03000 20.91000 6.36000 D
828 9 4.84000 18.48000 4.92000 D
829 9 1.76000 19.80000 3.74000 D
830 9 2.83000 18.83000 1.07000 D
831 9 3.92000 18.42000 2.37000 D
832 9 3.78000 18.06000 -0.11000 D
833 9 4.98000 17.71000 1.91000 D
834 9 4.85000 17.50000 0.50000 D
835 9 5.78000 17.34000 2.58000 D
836 9 5.46000 16.80000 -0.00000 D
837 9 2.24000 18.60000 -2.07000 D
838 9 3.38000 18.03000 -1.52000 D
839 9 3.41000 17.56000 -3.79000 D
840 9 2.21000 18.37000 -3.45000 D
841 9 1.41000 18.95000 -4.19000 D
842 9 4.08000 17.37000 -2.53000 D
843 9 5.32000 16.55000 -2.85000 D
844 9 6.21000 16.14000 -2.12000 D
845 9 4.16000 16.97000 -4.78000 D
846 9 5.27000 16.35000 -4.22000 D
847 9 1.17000 19.47000 -1.43000 D
848 9 0.81000 18.97000 -0.55000 D
849 9 0.29000 19.62000 -2.06000 D
850 9 1.65000 20.89000 -1.13000 D
851 9 2.59000 20.83000 -0.58000 D
852 9 0.55000 21.68000 -0.30000 D
853 9 0.81000 22.73000 -0.26000 D
854 9 -0.40000 21.65000 -0.80000 D
855 9 0.30000 21.22000 1.13000 D
856 9 -0.03000 20.17000 1.16000 D
857 9 1.22000 21.28000 1.70000 D
858 9 -0.67000 22.12000 1.85000 D
859 9 -1.61000 22.17000 1.33000 D
860 9 -0.27000 23.12000 1.81000 D
861 9 -0.91000 21.69000 3.29000 D
862 9 0.07000 21.67000 3.81000 D
863 9 -1.53000 22.41000 3.85000 D
864 9 -1.36000 20.67000 3.33000 D
865 9 1.99000 21.60000 -2.49000 D
866 9 1.17000 21.46000 -3.17000 D
867 9 2.84000 21.13000 -2.98000 D
868 9 2.28000 23.08000 -2.34000 D
869 9 2.63000 23.46000 -3.30000 D
870 9 1.34000 23.62000 -2.10000 D
871 9 2.95000 23.31000 -1.52000 D
872 9 6.27000 15.36000 -4.76000 D
873 9 6.61000 15.82000 -5.66000 D
874 9 7.15000 15.35000 -4.17000 D
875 9 5.69000 13.97000 -5.04000 D